<VTKFile type="ImageData">
<ImageData Origin="-0.1 -0.1 0" Spacing="0.01 0.01 0.01" WholeExtent="0 20 0 20 0 20">
<PointData>
<DataArray Name="phi" NumberOfComponents="1" format="ascii" type="Float64">
2 2 2 2 2 2 2 2 2 2 2 2 2 2 2 2 2 2 2 2 2 2 2 2 2 2 2 2 2 2 2 2 2 2 2 2 2 2 2 2 2 2 2 2 2 2 2 2 2 2 2 2 2 2 2 2 2 2 2 2 2 2 2 2 2 2 2 2 2 2 2 2 2 2 2 2 2 2 2 2 2 2 2 2 2 2 2 2 2 2 2 2 2 2 2 2 2 2 2 2 2 2 2 2 2 2 2 2 2 2 2 2 2 2 2 2 2 2 2 2 2 2 2 2 2 2 2 2 2 2 2 2 2 2 2 2 2 2 2 2 2 2 2 2 2 2 2 2 2 2 2 2 2 2 2 2 2 2 2 2 2 2 2 2 2 2 2 2 2 2 2 2 2 2 2 2 2 2 2 2 2 2 2 2 2 2 2 2 2 2 2 2 2 2 2 2 2 2 2 2 2 2 2 2 2 2 2 2 2 2 2 2 2 2 2 2 2 2 2 2 2 2 2 2 2 2 2 2 2 2 2 2 2 2 2 2 2 2 2 2 2 2 2 2 2 2 2 2 2 2 2 2 2 2 2 2 2 2 2 2 2 2 2 2 2 2 2 2 2 2 2 2 2 2 2 2 2 2 2 2 2 2 2 2 2 2 2 2 2 2 2 2 2 2 2 2 2 2 2 2 2 2 2 2 2 2 2 2 2 2 2 2 2 2 2 2 2 2 2 2 2 2 2 2 2 2 2 2 2 2 2 2 2 2 2 2 2 2 2 2 2 2 2 2 2 2 2 2 2 2 2 2 2 2 2 2 2 2 2 2 2 2 2 2 2 2 2 2 2 2 2 2 2 2 2 2 2 2 2 2 2 2 2 2 2 2 2 2 2 2 2 2 2 2 2 2 2 2 2 2 2 2 2 2 2 2 2 2 2 2 2 2 2 2 2 2 2 2 2 2 2 2 2 2 2 2 2 2 2 2 2 2 2 2 2 2 2 2 2 2 2 
1 0 0 0 0 0 0 0 0 0 0 0 0 0 0 0 0 0 0 0 0 1 0.999355 0.99871 0.998064 0.997413 0.996748 0.996056 0.995315 0.99449 0.993529 0.992353 0.990833 0.98876 0.985764 0.981153 0.973502 0.959556 0.930861 0.862174 0.666452 0 1 1.2926 1.36356 1.38185 1.38649 1.3872 1.38662 1.3855 1.38403 1.38222 1.37995 1.37699 1.37296 1.36716 1.35831 1.34385 1.31814 1.26743 1.15401 0.862157 0 1 1.39525 1.51339 1.55069 1.56278 1.56632 1.56665 1.56559 1.56374 1.56125 1.55803 1.5538 1.54801 1.53973 1.52724 1.5072 1.47253 1.40679 1.26735 0.930791 0 1 1.43786 1.58266 1.63403 1.65301 1.65975 1.66143 1.66077 1.65878 1.65581 1.65182 1.64649 1.6392 1.62884 1.61338 1.58901 1.54787 1.47228 1.31786 0.959379 0 1 1.45827 1.61816 1.67904 1.70347 1.71314 1.71626 1.71615 1.7142 1.71092 1.70632 1.7001 1.69159 1.67955 1.66177 1.63416 1.58847 1.50648 1.34322 0.973144 0 1 1.46912 1.63783 1.70494 1.73337 1.74541 1.74981 1.7503 1.74848 1.745 1.73996 1.73305 1.72358 1.71023 1.69071 1.66075 1.61191 1.52576 1.35714 0.980512 0 1 1.47525 1.64923 1.72034 1.75154 1.76535 1.7708 1.7718 1.77014 1.76655 1.76119 1.75378 1.74359 1.72929 1.70851 1.67691 1.62594 1.5371 1.36518 0.984709 0 1 1.47874 1.65582 1.72939 1.76239 1.77741 1.7836 1.785 1.78348 1.77984 1.77427 1.76652 1.75584 1.74089 1.71926 1.68657 1.63425 1.54374 1.36984 0.987118 0 1 1.48056 1.65926 1.73418 1.76818 1.78391 1.79053 1.79218 1.79075 1.78709 1.78141 1.77345 1.76249 1.74716 1.72505 1.69175 1.63867 1.54724 1.37229 0.988376 0 1 1.48112 1.66034 1.73568 1.77001 1.78596 1.79273 1.79446 1.79306 1.78939 1.78368 1.77566 1.7646 1.74915 1.72687 1.69338 1.64006 1.54834 1.37305 0.988767 0 1 1.48056 1.65926 1.73418 1.76818 1.78391 1.79053 1.79218 1.79075 1.78709 1.78141 1.77345 1.76249 1.74716 1.72505 1.69175 1.63867 1.54724 1.37229 0.988376 0 1 1.47874 1.65582 1.72939 1.76239 1.77741 1.7836 1.785 1.78348 1.77984 1.77427 1.76652 1.75584 1.74089 1.71926 1.68657 1.63425 1.54374 1.36984 0.987118 0 1 1.47525 1.64923 1.72034 1.75154 1.76535 1.7708 1.7718 1.77014 1.76655 1.76119 1.75378 1.74359 1.72929 1.70851 1.67691 1.62594 1.5371 1.36518 0.984709 0 1 1.46912 1.63783 1.70494 1.73337 1.74541 1.74981 1.7503 1.74848 1.745 1.73996 1.73305 1.72358 1.71023 1.69071 1.66075 1.61191 1.52576 1.35714 0.980512 0 1 1.45827 1.61816 1.67904 1.70347 1.71314 1.71626 1.71615 1.7142 1.71092 1.70632 1.7001 1.69159 1.67955 1.66177 1.63416 1.58847 1.50648 1.34322 0.973144 0 1 1.43786 1.58266 1.63403 1.65301 1.65975 1.66143 1.66077 1.65878 1.65581 1.65182 1.64649 1.6392 1.62884 1.61338 1.58901 1.54787 1.47228 1.31786 0.959379 0 1 1.39525 1.51339 1.55069 1.56278 1.56632 1.56665 1.56559 1.56374 1.56125 1.55803 1.5538 1.54801 1.53973 1.52724 1.5072 1.47253 1.40679 1.26735 0.930791 0 1 1.2926 1.36356 1.38185 1.38649 1.3872 1.38662 1.3855 1.38403 1.38222 1.37995 1.37699 1.37296 1.36716 1.35831 1.34385 1.31814 1.26743 1.15401 0.862157 0 1 0.999355 0.99871 0.998064 0.997413 0.996748 0.996056 0.995315 0.99449 0.993529 0.992353 0.990833 0.98876 0.985764 0.981153 0.973502 0.959556 0.930861 0.862174 0.666452 0 1 0 0 0 0 0 0 0 0 0 0 0 0 0 0 0 0 0 0 0 0 
1 0 0 0 0 0 0 0 0 0 0 0 0 0 0 0 0 0 0 0 0 1 0.704821 0.631278 0.610415 0.603177 0.599815 0.597652 0.595846 0.594066 0.592115 0.589805 0.586891 0.582999 0.57751 0.56934 0.556458 0.53483 0.496002 0.421723 0.274379 0 1 0.997421 0.994845 0.992268 0.989679 0.987048 0.984325 0.981428 0.978231 0.974546 0.97009 0.964423 0.956846 0.946198 0.930459 0.905927 0.865473 0.794795 0.664948 0.421689 0 1 1.12767 1.18815 1.21212 1.22016 1.22152 1.21994 1.21686 1.21278 1.20771 1.20139 1.19326 1.18237 1.16713 1.14482 1.11055 1.05519 0.961164 0.794623 0.495865 0 1 1.191 1.29249 1.33879 1.35801 1.3646 1.36518 1.36264 1.35817 1.3521 1.34425 1.33402 1.32029 1.30117 1.27344 1.23146 1.16494 1.0547 0.864917 0.534484 0 1 1.22447 1.35118 1.41365 1.44228 1.45395 1.45699 1.45539 1.4509 1.44416 1.43512 1.42317 1.40711 1.38484 1.35283 1.30497 1.23039 1.10914 0.904693 0.555754 0 1 1.24335 1.38555 1.45907 1.49484 1.51077 1.51612 1.51554 1.51124 1.5041 1.49417 1.4809 1.463 1.43827 1.403 1.35083 1.27055 1.14191 0.928156 0.568082 0 1 1.2544 1.40613 1.48694 1.52779 1.54696 1.55421 1.55456 1.55052 1.54314 1.5326 1.51834 1.49907 1.47253 1.4349 1.37966 1.29549 1.16197 0.942319 0.57544 0 1 1.26084 1.41827 1.50363 1.54782 1.56924 1.57786 1.57893 1.57513 1.56764 1.55669 1.54176 1.52156 1.49378 1.45454 1.39728 1.31058 1.17399 0.950732 0.579781 0 1 1.26421 1.42469 1.51256 1.55862 1.58134 1.59079 1.59232 1.58868 1.58114 1.56996 1.55464 1.53389 1.50539 1.46523 1.40682 1.31871 1.18043 0.955209 0.582081 0 1 1.26527 1.42671 1.51536 1.56203 1.58519 1.59491 1.59659 1.59301 1.58545 1.5742 1.55875 1.53782 1.50909 1.46863 1.40985 1.32128 1.18246 0.956616 0.582802 0 1 1.26421 1.42469 1.51256 1.55862 1.58134 1.59079 1.59232 1.58868 1.58114 1.56996 1.55464 1.53389 1.50539 1.46523 1.40682 1.31871 1.18043 0.955209 0.582081 0 1 1.26084 1.41827 1.50363 1.54782 1.56924 1.57786 1.57893 1.57513 1.56764 1.55669 1.54176 1.52156 1.49378 1.45454 1.39728 1.31058 1.17399 0.950732 0.579781 0 1 1.2544 1.40613 1.48694 1.52779 1.54696 1.55421 1.55456 1.55052 1.54314 1.5326 1.51834 1.49907 1.47253 1.4349 1.37966 1.29549 1.16197 0.942319 0.57544 0 1 1.24335 1.38555 1.45907 1.49484 1.51077 1.51612 1.51554 1.51124 1.5041 1.49417 1.4809 1.463 1.43827 1.403 1.35083 1.27055 1.14191 0.928156 0.568082 0 1 1.22447 1.35118 1.41365 1.44228 1.45395 1.45699 1.45539 1.4509 1.44416 1.43512 1.42317 1.40711 1.38484 1.35283 1.30497 1.23039 1.10914 0.904693 0.555754 0 1 1.191 1.29249 1.33879 1.35801 1.3646 1.36518 1.36264 1.35817 1.3521 1.34425 1.33402 1.32029 1.30117 1.27344 1.23146 1.16494 1.0547 0.864917 0.534484 0 1 1.12767 1.18815 1.21212 1.22016 1.22152 1.21994 1.21686 1.21278 1.20771 1.20139 1.19326 1.18237 1.16713 1.14482 1.11055 1.05519 0.961164 0.794623 0.495865 0 1 0.997421 0.994845 0.992268 0.989679 0.987048 0.984325 0.981428 0.978231 0.974546 0.97009 0.964423 0.956846 0.946198 0.930459 0.905927 0.865473 0.794795 0.664948 0.421689 0 1 0.704821 0.631278 0.610415 0.603177 0.599815 0.597652 0.595846 0.594066 0.592115 0.589805 0.586891 0.582999 0.57751 0.56934 0.556458 0.53483 0.496002 0.421723 0.274379 0 1 0 0 0 0 0 0 0 0 0 0 0 0 0 0 0 0 0 0 0 0 
1 0 0 0 0 0 0 0 0 0 0 0 0 0 0 0 0 0 0 0 0 1 0.600874 0.478874 0.437703 0.42174 0.414266 0.409868 0.406616 0.403713 0.400742 0.397382 0.393287 0.387986 0.380762 0.370461 0.355147 0.331494 0.293803 0.232833 0.136412 0 1 0.86459 0.796382 0.764705 0.748929 0.739746 0.733264 0.727805 0.722536 0.716912 0.710427 0.702458 0.692125 0.678078 0.658153 0.628777 0.583954 0.513749 0.40285 0.232783 0 1 0.994199 0.988412 0.982645 0.976877 0.971057 0.965085 0.958801 0.951961 0.944203 0.934996 0.923551 0.908675 0.888514 0.86012 0.818713 0.756473 0.660881 0.513499 0.293603 0 1 1.06351 1.10317 1.12244 1.12924 1.12921 1.12546 1.11948 1.11184 1.10251 1.09107 1.07666 1.05786 1.03248 0.996993 0.945828 0.870053 0.75576 0.583143 0.330989 0 1 1.10302 1.17276 1.21153 1.22977 1.23589 1.23507 1.23008 1.22221 1.21182 1.19864 1.1818 1.15977 1.1301 1.08893 1.03017 0.944273 0.81665 0.626978 0.354121 0 1 1.12655 1.21573 1.26847 1.29579 1.30734 1.30942 1.30566 1.29791 1.28686 1.27238 1.25364 1.22905 1.19603 1.15047 1.08602 0.992784 0.855871 0.654799 0.368628 0 1 1.14086 1.24241 1.30466 1.33861 1.35441 1.35895 1.35637 1.34889 1.33745 1.32206 1.30192 1.27542 1.23989 1.19112 1.12258 1.02421 0.880999 0.672436 0.37775 0 1 1.14938 1.25851 1.32683 1.36524 1.38402 1.39038 1.38874 1.38155 1.3699 1.3539 1.33281 1.30499 1.26775 1.21679 1.14551 1.04377 0.896516 0.683247 0.383312 0 1 1.15392 1.26716 1.33884 1.37978 1.40033 1.40779 1.40674 1.39975 1.38801 1.37168 1.35002 1.32144 1.28319 1.23097 1.15812 1.05448 0.904966 0.689109 0.386318 0 1 1.15535 1.26988 1.34265 1.38441 1.40553 1.41337 1.41252 1.4056 1.39384 1.37739 1.35556 1.32672 1.28814 1.2355 1.16214 1.05789 0.90765 0.690967 0.387269 0 1 1.15392 1.26716 1.33884 1.37978 1.40033 1.40779 1.40674 1.39975 1.38801 1.37168 1.35002 1.32144 1.28319 1.23097 1.15812 1.05448 0.904966 0.689109 0.386318 0 1 1.14938 1.25851 1.32683 1.36524 1.38402 1.39038 1.38874 1.38155 1.3699 1.3539 1.33281 1.30499 1.26775 1.21679 1.14551 1.04377 0.896516 0.683247 0.383312 0 1 1.14086 1.24241 1.30466 1.33861 1.35441 1.35895 1.35637 1.34889 1.33745 1.32206 1.30192 1.27542 1.23989 1.19112 1.12258 1.02421 0.880999 0.672436 0.37775 0 1 1.12655 1.21573 1.26847 1.29579 1.30734 1.30942 1.30566 1.29791 1.28686 1.27238 1.25364 1.22905 1.19603 1.15047 1.08602 0.992784 0.855871 0.654799 0.368628 0 1 1.10302 1.17276 1.21153 1.22977 1.23589 1.23507 1.23008 1.22221 1.21182 1.19864 1.1818 1.15977 1.1301 1.08893 1.03017 0.944273 0.81665 0.626978 0.354121 0 1 1.06351 1.10317 1.12244 1.12924 1.12921 1.12546 1.11948 1.11184 1.10251 1.09107 1.07666 1.05786 1.03248 0.996993 0.945828 0.870053 0.75576 0.583143 0.330989 0 1 0.994199 0.988412 0.982645 0.976877 0.971057 0.965085 0.958801 0.951961 0.944203 0.934996 0.923551 0.908675 0.888514 0.86012 0.818713 0.756473 0.660882 0.513499 0.293603 0 1 0.86459 0.796382 0.764705 0.748929 0.739746 0.733264 0.727805 0.722536 0.716912 0.710427 0.702458 0.692125 0.678078 0.658153 0.628777 0.583954 0.513749 0.40285 0.232783 0 1 0.600874 0.478874 0.437703 0.42174 0.414266 0.409868 0.406616 0.403713 0.400742 0.397382 0.393287 0.387986 0.380762 0.370461 0.355147 0.331494 0.293803 0.232833 0.136412 0 1 0 0 0 0 0 0 0 0 0 0 0 0 0 0 0 0 0 0 0 0 
1 0 0 0 0 0 0 0 0 0 0 0 0 0 0 0 0 0 0 0 0 1 0.556962 0.407007 0.350486 0.326364 0.314428 0.307412 0.302462 0.298321 0.294329 0.290033 0.285007 0.278742 0.270535 0.259364 0.243691 0.22123 0.188738 0.142208 0.0784776 0 1 0.798662 0.686865 0.630303 0.600828 0.58391 0.572757 0.564187 0.556593 0.549019 0.540721 0.530935 0.518708 0.502715 0.481022 0.450766 0.407758 0.346214 0.259289 0.142144 0 1 0.921005 0.865921 0.831318 0.80923 0.793904 0.781992 0.77161 0.761605 0.75112 0.73933 0.725263 0.707628 0.6846 0.653526 0.610526 0.550047 0.464644 0.345892 0.188481 0 1 0.989686 0.979421 0.969233 0.959112 0.948992 0.938728 0.928084 0.916697 0.904043 0.889377 0.87164 0.849315 0.820214 0.781164 0.727582 0.653037 0.549133 0.406718 0.220582 0 1 1.03081 1.05194 1.06212 1.06388 1.06003 1.05259 1.04268 1.03071 1.01656 0.999649 0.978903 0.952682 0.918557 0.873007 0.811 0.725589 0.607882 0.448459 0.242375 0 1 1.05636 1.09863 1.12406 1.13572 1.13774 1.13336 1.12463 1.1126 1.09748 1.07889 1.05579 1.02647 0.98837 0.937742 0.869289 0.775777 0.648084 0.476727 0.257016 0 1 1.07239 1.12856 1.16468 1.1838 1.19058 1.1889 1.18141 1.16956 1.15388 1.13409 1.10924 1.0776 1.03651 0.982114 0.908955 0.809656 0.674993 0.4955 0.266683 0 1 1.08216 1.14703 1.19012 1.21435 1.22454 1.22492 1.21845 1.20686 1.19085 1.17028 1.14424 1.11099 1.06783 1.01085 0.934502 0.831343 0.692113 0.507378 0.272776 0 1 1.08744 1.15708 1.20409 1.23126 1.24349 1.24514 1.23933 1.22794 1.21177 1.19077 1.16403 1.12983 1.08547 1.02698 0.948789 0.843423 0.701612 0.513946 0.276137 0 1 1.08911 1.16027 1.20854 1.23668 1.24958 1.25165 1.24607 1.23475 1.21854 1.19739 1.17043 1.13592 1.09116 1.03217 0.953385 0.847302 0.704655 0.516047 0.277211 0 1 1.08744 1.15708 1.20409 1.23126 1.24349 1.24514 1.23933 1.22794 1.21177 1.19077 1.16403 1.12983 1.08547 1.02698 0.948789 0.843423 0.701612 0.513946 0.276137 0 1 1.08216 1.14703 1.19012 1.21435 1.22454 1.22492 1.21845 1.20686 1.19085 1.17028 1.14424 1.11099 1.06783 1.01085 0.934502 0.831343 0.692113 0.507378 0.272776 0 1 1.07239 1.12856 1.16468 1.1838 1.19058 1.1889 1.18141 1.16956 1.15388 1.13409 1.10924 1.0776 1.03651 0.982114 0.908955 0.809656 0.674993 0.4955 0.266683 0 1 1.05636 1.09863 1.12406 1.13572 1.13774 1.13336 1.12463 1.1126 1.09748 1.07889 1.05579 1.02647 0.98837 0.937742 0.869289 0.775777 0.648084 0.476727 0.257016 0 1 1.03081 1.05194 1.06212 1.06388 1.06003 1.05259 1.04268 1.03071 1.01656 0.999649 0.978903 0.952682 0.918557 0.873007 0.811 0.725589 0.607882 0.448459 0.242375 0 1 0.989686 0.979421 0.969233 0.959112 0.948992 0.938728 0.928084 0.916697 0.904043 0.889377 0.87164 0.849315 0.820214 0.781164 0.727582 0.653037 0.549133 0.406718 0.220582 0 1 0.921005 0.865921 0.831318 0.80923 0.793904 0.781992 0.77161 0.761605 0.75112 0.73933 0.725263 0.707628 0.6846 0.653526 0.610526 0.550047 0.464644 0.345892 0.188481 0 1 0.798662 0.686865 0.630303 0.600828 0.58391 0.572757 0.564187 0.556593 0.549019 0.540721 0.530935 0.518708 0.502715 0.481022 0.450766 0.407758 0.346214 0.259289 0.142144 0 1 0.556962 0.407007 0.350486 0.326364 0.314428 0.307412 0.302462 0.298321 0.294329 0.290033 0.285007 0.278742 0.270535 0.259364 0.243691 0.22123 0.188738 0.142208 0.0784776 0 1 0 0 0 0 0 0 0 0 0 0 0 0 0 0 0 0 0 0 0 0 
1 0 0 0 0 0 0 0 0 0 0 0 0 0 0 0 0 0 0 0 0 1 0.535227 0.368855 0.30154 0.270704 0.254615 0.244957 0.238237 0.232827 0.227857 0.222757 0.217046 0.210213 0.201631 0.190474 0.17564 0.155701 0.128974 0.0939093 0.0501019 0 1 0.762549 0.622915 0.547617 0.50623 0.481796 0.465776 0.453893 0.443892 0.43444 0.424582 0.413455 0.400105 0.383345 0.361608 0.332822 0.294338 0.243104 0.176428 0.0938333 0 1 0.877565 0.788505 0.730579 0.693342 0.668246 0.649867 0.634988 0.621651 0.60852 0.594501 0.578492 0.559207 0.535004 0.503722 0.462523 0.407845 0.335694 0.24272 0.128668 0 1 0.943365 0.896576 0.860993 0.834107 0.812965 0.795248 0.7793 0.763894 0.747985 0.730529 0.710323 0.685861 0.655175 0.61566 0.563934 0.495821 0.406757 0.293099 0.154928 0 1 0.983877 0.967872 0.95207 0.936499 0.921096 0.905693 0.889991 0.873533 0.855672 0.835518 0.811862 0.783076 0.746972 0.70065 0.640365 0.561564 0.459377 0.330077 0.174073 0 1 1.00976 1.01516 1.01473 1.00907 0.999409 0.986863 0.97209 0.955267 0.936122 0.913948 0.887582 0.855342 0.81491 0.763197 0.696237 0.609262 0.497255 0.356502 0.187682 0 1 1.0264 1.04621 1.05686 1.05889 1.05407 1.04421 1.03055 1.01375 0.993812 0.970202 0.94182 0.90697 0.863263 0.807501 0.735591 0.642652 0.523604 0.374781 0.197058 0 1 1.03673 1.06573 1.08374 1.09113 1.08987 1.0821 1.06944 1.0528 1.03241 1.00785 0.978087 0.941423 0.895437 0.836872 0.761569 0.664589 0.540836 0.386687 0.203148 0 1 1.04238 1.07648 1.09867 1.1092 1.1101 1.10364 1.09163 1.07515 1.05453 1.02944 0.998871 0.961142 0.913815 0.853608 0.776328 0.677014 0.550566 0.393392 0.206571 0 1 1.04417 1.07992 1.10346 1.11502 1.11663 1.11062 1.09884 1.08242 1.06174 1.03647 1.00564 0.967558 0.91979 0.859041 0.781113 0.681036 0.553711 0.395556 0.207675 0 1 1.04238 1.07648 1.09867 1.1092 1.1101 1.10364 1.09163 1.07515 1.05453 1.02944 0.998871 0.961142 0.913816 0.853608 0.776328 0.677014 0.550566 0.393392 0.206571 0 1 1.03673 1.06573 1.08374 1.09113 1.08987 1.0821 1.06944 1.0528 1.03241 1.00785 0.978087 0.941423 0.895437 0.836872 0.761569 0.664589 0.540836 0.386687 0.203148 0 1 1.0264 1.04621 1.05686 1.05889 1.05407 1.04421 1.03055 1.01375 0.993812 0.970202 0.94182 0.90697 0.863263 0.807501 0.735591 0.642652 0.523604 0.374781 0.197058 0 1 1.00976 1.01516 1.01473 1.00907 0.999409 0.986863 0.97209 0.955267 0.936122 0.913948 0.887582 0.855342 0.81491 0.763197 0.696237 0.609262 0.497255 0.356502 0.187682 0 1 0.983877 0.967872 0.95207 0.936499 0.921096 0.905693 0.889991 0.873533 0.855672 0.835518 0.811862 0.783076 0.746972 0.70065 0.640365 0.561564 0.459377 0.330077 0.174073 0 1 0.943365 0.896576 0.860993 0.834107 0.812965 0.795248 0.779301 0.763894 0.747985 0.730529 0.710323 0.685862 0.655175 0.61566 0.563934 0.495821 0.406757 0.293099 0.154928 0 1 0.877565 0.788505 0.730579 0.693342 0.668246 0.649867 0.634988 0.621651 0.60852 0.594501 0.578492 0.559207 0.535004 0.503722 0.462523 0.407845 0.335694 0.24272 0.128668 0 1 0.762549 0.622915 0.547617 0.50623 0.481796 0.465776 0.453893 0.443892 0.43444 0.424582 0.413455 0.400105 0.383345 0.361608 0.332822 0.294338 0.243104 0.176428 0.0938333 0 1 0.535227 0.368855 0.30154 0.270704 0.254615 0.244957 0.238237 0.232827 0.227857 0.222757 0.217046 0.210213 0.201631 0.190474 0.17564 0.155701 0.128974 0.0939093 0.0501019 0 1 0 0 0 0 0 0 0 0 0 0 0 0 0 0 0 0 0 0 0 0 
1 0 0 0 0 0 0 0 0 0 0 0 0 0 0 0 0 0 0 0 0 1 0.522996 0.34644 0.271576 0.235477 0.215805 0.203703 0.195283 0.188657 0.182791 0.177026 0.170844 0.163754 0.155218 0.144602 0.131152 0.114022 0.0923894 0.065745 0.0343912 0 1 0.740925 0.583102 0.494136 0.443091 0.412 0.391388 0.376278 0.363948 0.352768 0.341617 0.329568 0.315704 0.299005 0.278264 0.252057 0.218798 0.176976 0.12571 0.0656588 0 1 0.849966 0.737472 0.661697 0.611658 0.577604 0.552953 0.533608 0.517005 0.501426 0.485554 0.468206 0.44815 0.423976 0.39401 0.356287 0.308648 0.249094 0.176542 0.0920425 0 1 0.912488 0.839301 0.783391 0.741733 0.710103 0.684933 0.663598 0.644196 0.625251 0.605468 0.583554 0.558074 0.527336 0.489316 0.441652 0.381787 0.307415 0.217394 0.113146 0 1 0.951454 0.907609 0.870207 0.838776 0.811978 0.788367 0.766646 0.745661 0.724311 0.701448 0.675771 0.645736 0.609466 0.5647 0.508806 0.438972 0.352728 0.24895 0.129378 0 1 0.976758 0.953756 0.931185 0.909146 0.887615 0.866422 0.845228 0.823514 0.80055 0.775373 0.746732 0.71304 0.672315 0.62214 0.559718 0.482088 0.386701 0.272491 0.141445 0 1 0.993288 0.984575 0.972922 0.958386 0.941485 0.92274 0.902432 0.880498 0.856516 0.829688 0.798837 0.76237 0.718248 0.663969 0.596634 0.513207 0.411109 0.289337 0.150055 0 1 1.00369 1.00421 0.999926 0.990719 0.977301 0.960548 0.941097 0.919187 0.894606 0.866687 0.834317 0.795915 0.749415 0.69227 0.621531 0.53412 0.427456 0.300586 0.155793 0 1 1.00943 1.01513 1.01507 1.00902 0.997736 0.982255 0.963401 0.941575 0.916685 0.888149 0.854894 0.815352 0.767448 0.708614 0.635876 0.546142 0.436832 0.307025 0.159073 0 1 1.01127 1.01863 1.01995 1.01494 1.00437 0.989328 0.970686 0.948898 0.923914 0.895179 0.861633 0.821715 0.773347 0.713956 0.64056 0.550062 0.439885 0.30912 0.16014 0 1 1.00943 1.01513 1.01507 1.00902 0.997736 0.982255 0.963402 0.941575 0.916685 0.888149 0.854894 0.815352 0.767448 0.708614 0.635876 0.546142 0.436832 0.307025 0.159073 0 1 1.00369 1.00421 0.999926 0.990719 0.977301 0.960548 0.941097 0.919188 0.894606 0.866687 0.834317 0.795915 0.749415 0.69227 0.621531 0.53412 0.427456 0.300586 0.155793 0 1 0.993288 0.984575 0.972922 0.958386 0.941485 0.92274 0.902432 0.880499 0.856516 0.829688 0.798837 0.76237 0.718248 0.663969 0.596634 0.513207 0.411109 0.289337 0.150055 0 1 0.976758 0.953756 0.931185 0.909146 0.887615 0.866422 0.845228 0.823514 0.80055 0.775373 0.746732 0.71304 0.672315 0.62214 0.559718 0.482088 0.386701 0.272491 0.141445 0 1 0.951454 0.907609 0.870207 0.838777 0.811978 0.788367 0.766646 0.745661 0.724311 0.701448 0.675771 0.645736 0.609466 0.5647 0.508806 0.438972 0.352728 0.24895 0.129378 0 1 0.912488 0.839301 0.783391 0.741733 0.710103 0.684933 0.663598 0.644196 0.625251 0.605468 0.583554 0.558074 0.527336 0.489316 0.441652 0.381787 0.307416 0.217394 0.113146 0 1 0.849966 0.737472 0.661697 0.611658 0.577604 0.552953 0.533608 0.517005 0.501426 0.485554 0.468206 0.44815 0.423976 0.39401 0.356287 0.308648 0.249094 0.176542 0.0920425 0 1 0.740925 0.583102 0.494136 0.443091 0.412 0.391388 0.376278 0.363948 0.352768 0.341617 0.329568 0.315704 0.299005 0.278264 0.252057 0.218798 0.176976 0.12571 0.0656588 0 1 0.522996 0.34644 0.271576 0.235477 0.215805 0.203703 0.195283 0.188657 0.182791 0.177026 0.170844 0.163754 0.155218 0.144602 0.131152 0.114022 0.0923894 0.065745 0.0343912 0 1 0 0 0 0 0 0 0 0 0 0 0 0 0 0 0 0 0 0 0 0 
1 0 0 0 0 0 0 0 0 0 0 0 0 0 0 0 0 0 0 0 0 1 0.515381 0.332114 0.251861 0.211688 0.189036 0.174786 0.164823 0.15709 0.15044 0.144146 0.13767 0.130547 0.122318 0.112502 0.100591 0.0860915 0.0686196 0.0480701 0.0248415 0 1 0.726939 0.556723 0.457732 0.399043 0.362318 0.337615 0.31955 0.305086 0.292386 0.280206 0.26758 0.253641 0.237522 0.218303 0.195021 0.166745 0.132763 0.09291 0.047976 0 1 0.831346 0.70226 0.612946 0.55248 0.510661 0.48032 0.456825 0.437203 0.419456 0.402106 0.383918 0.363732 0.340351 0.312497 0.278832 0.238079 0.189288 0.132288 0.0682406 0 1 0.89084 0.798271 0.726418 0.672363 0.631406 0.599328 0.572906 0.549769 0.528118 0.506472 0.483485 0.457807 0.428007 0.392538 0.349783 0.298214 0.236734 0.165212 0.0851356 0 1 0.927993 0.863064 0.808209 0.763097 0.725909 0.694529 0.667031 0.641765 0.617286 0.592247 0.565294 0.534986 0.49974 0.457824 0.407427 0.346862 0.274951 0.191631 0.0986555 0 1 0.952293 0.907249 0.866345 0.829845 0.797251 0.767716 0.740267 0.713877 0.687467 0.65987 0.629788 0.595749 0.556083 0.508945 0.4524 0.384666 0.304533 0.212011 0.109061 0 1 0.968311 0.937056 0.906596 0.877159 0.848793 0.821349 0.794471 0.767593 0.739939 0.710513 0.678093 0.641211 0.598157 0.547017 0.48579 0.412639 0.326351 0.227 0.116699 0 1 0.978473 0.956218 0.932891 0.908551 0.883448 0.857787 0.831576 0.804551 0.77615 0.745513 0.711483 0.672611 0.627174 0.573221 0.508715 0.431796 0.341255 0.237217 0.121898 0 1 0.984119 0.966941 0.947742 0.926449 0.903371 0.878877 0.853162 0.826126 0.797335 0.766011 0.731042 0.690996 0.644146 0.588527 0.522083 0.442947 0.349916 0.243147 0.124912 0 1 0.985931 0.970393 0.952543 0.932261 0.909867 0.885777 0.860242 0.833215 0.804303 0.772757 0.73748 0.697047 0.649728 0.593557 0.526474 0.446606 0.352756 0.245089 0.125899 0 1 0.984119 0.966941 0.947742 0.926449 0.903371 0.878877 0.853162 0.826126 0.797335 0.766011 0.731042 0.690996 0.644146 0.588527 0.522083 0.442947 0.349916 0.243147 0.124912 0 1 0.978473 0.956218 0.932891 0.908551 0.883448 0.857787 0.831576 0.804551 0.77615 0.745513 0.711483 0.672611 0.627174 0.573221 0.508715 0.431796 0.341255 0.237217 0.121898 0 1 0.968311 0.937056 0.906596 0.877159 0.848793 0.821349 0.794471 0.767593 0.739939 0.710514 0.678093 0.641211 0.598157 0.547018 0.48579 0.41264 0.326351 0.227 0.116699 0 1 0.952293 0.907249 0.866345 0.829845 0.797251 0.767716 0.740267 0.713877 0.687467 0.65987 0.629788 0.595749 0.556083 0.508945 0.4524 0.384666 0.304533 0.212011 0.109061 0 1 0.927993 0.863064 0.808209 0.763097 0.725909 0.694529 0.667031 0.641765 0.617286 0.592247 0.565294 0.534986 0.49974 0.457824 0.407427 0.346862 0.274951 0.191631 0.0986555 0 1 0.89084 0.798271 0.726418 0.672363 0.631406 0.599328 0.572906 0.549769 0.528118 0.506472 0.483485 0.457807 0.428007 0.392538 0.349783 0.298214 0.236734 0.165212 0.0851356 0 1 0.831346 0.70226 0.612946 0.55248 0.510661 0.48032 0.456825 0.437203 0.419456 0.402106 0.383918 0.363732 0.340351 0.312497 0.278832 0.238079 0.189288 0.132288 0.0682406 0 1 0.726939 0.556723 0.457732 0.399043 0.362318 0.337615 0.31955 0.305086 0.292386 0.280206 0.26758 0.253641 0.237522 0.218303 0.195021 0.166745 0.132763 0.09291 0.047976 0 1 0.515381 0.332114 0.251861 0.211688 0.189036 0.174786 0.164823 0.15709 0.15044 0.144146 0.13767 0.130547 0.122318 0.112502 0.100591 0.0860915 0.0686196 0.0480702 0.0248415 0 1 0 0 0 0 0 0 0 0 0 0 0 0 0 0 0 0 0 0 0 0 
1 0 0 0 0 0 0 0 0 0 0 0 0 0 0 0 0 0 0 0 0 1 0.510237 0.322278 0.238058 0.194712 0.169617 0.153537 0.14223 0.133534 0.126224 0.119531 0.112904 0.105899 0.0981212 0.0891969 0.0787781 0.066572 0.0524031 0.0363047 0.0186119 0 1 0.717259 0.538191 0.431681 0.36695 0.325552 0.29733 0.27667 0.260341 0.246361 0.233403 0.220477 0.206763 0.191511 0.174011 0.153598 0.129716 0.102042 0.0706522 0.0362048 0 1 0.81807 0.676803 0.577088 0.508209 0.459841 0.424536 0.397361 0.375079 0.355498 0.337026 0.318402 0.298526 0.276371 0.250947 0.221328 0.186747 0.14677 0.101538 0.0520012 0 1 0.874943 0.767741 0.683327 0.619045 0.570069 0.531873 0.500885 0.474427 0.450473 0.427411 0.403862 0.378556 0.350269 0.317803 0.280033 0.236039 0.185321 0.128092 0.0655585 0 1 0.910306 0.829054 0.760121 0.70348 0.657193 0.618824 0.586075 0.556966 0.529809 0.50311 0.475487 0.445591 0.412072 0.373591 0.328888 0.27694 0.217216 0.150007 0.0767277 0 1 0.933449 0.870977 0.814988 0.766073 0.723627 0.68648 0.653278 0.622656 0.593279 0.563833 0.53299 0.499383 0.461596 0.418203 0.367856 0.309474 0.242518 0.167351 0.0855538 0 1 0.948754 0.899386 0.853206 0.810782 0.772067 0.736589 0.703611 0.672224 0.641394 0.609978 0.576727 0.540285 0.499209 0.452024 0.397334 0.334027 0.26157 0.180385 0.0921778 0 1 0.958505 0.917737 0.878312 0.840642 0.804882 0.770922 0.738387 0.706672 0.674956 0.642232 0.607321 0.56889 0.525491 0.475624 0.417869 0.351099 0.274793 0.189419 0.0967641 0 1 0.96394 0.928045 0.892553 0.857747 0.82385 0.790911 0.758748 0.72692 0.694735 0.661268 0.625388 0.585781 0.541001 0.489538 0.429962 0.36114 0.282561 0.19472 0.0994539 0 1 0.965688 0.93137 0.897167 0.863316 0.830051 0.79747 0.765448 0.733596 0.701264 0.667557 0.631358 0.591364 0.546125 0.494133 0.433953 0.364452 0.285122 0.196467 0.10034 0 1 0.96394 0.928045 0.892553 0.857747 0.82385 0.790911 0.758748 0.72692 0.694735 0.661268 0.625388 0.585781 0.541001 0.489538 0.429962 0.36114 0.282561 0.19472 0.0994539 0 1 0.958505 0.917737 0.878312 0.840642 0.804882 0.770922 0.738387 0.706672 0.674956 0.642232 0.607321 0.56889 0.525491 0.475624 0.417869 0.351099 0.274793 0.189419 0.0967641 0 1 0.948754 0.899386 0.853206 0.810782 0.772067 0.736589 0.703611 0.672224 0.641394 0.609978 0.576727 0.540285 0.499209 0.452024 0.397334 0.334027 0.26157 0.180385 0.0921778 0 1 0.933449 0.870977 0.814988 0.766073 0.723627 0.68648 0.653278 0.622656 0.593279 0.563833 0.53299 0.499383 0.461596 0.418203 0.367856 0.309474 0.242518 0.167351 0.0855538 0 1 0.910306 0.829054 0.760121 0.70348 0.657193 0.618824 0.586075 0.556966 0.529809 0.503111 0.475487 0.445591 0.412072 0.373591 0.328888 0.27694 0.217216 0.150007 0.0767277 0 1 0.874943 0.767741 0.683327 0.619045 0.570069 0.531873 0.500885 0.474427 0.450473 0.427411 0.403862 0.378556 0.350269 0.317803 0.280033 0.236039 0.185321 0.128092 0.0655585 0 1 0.81807 0.676803 0.577088 0.508209 0.459841 0.424536 0.397361 0.375079 0.355498 0.337026 0.318402 0.298526 0.276371 0.250947 0.221328 0.186747 0.14677 0.101538 0.0520012 0 1 0.717259 0.538191 0.431681 0.36695 0.325552 0.29733 0.27667 0.260341 0.246361 0.233403 0.220478 0.206763 0.191511 0.174011 0.153598 0.129716 0.102042 0.0706522 0.0362048 0 1 0.510237 0.322278 0.238058 0.194712 0.169617 0.153537 0.14223 0.133534 0.126225 0.119531 0.112904 0.105899 0.0981212 0.0891969 0.0787781 0.066572 0.0524032 0.0363047 0.0186119 0 1 0 0 0 0 0 0 0 0 0 0 0 0 0 0 0 0 0 0 0 0 