<?xml version="1.0"?>
<VTKFile type="ImageData" version="0.1" byte_order="LittleEndian">
  <ImageData WholeExtent="0 2 0 2 0 2" Origin="0 0 0" Spacing="1 1 1">
    <Piece Extent="0 1 0 1 0 1">
      <PointData Scalars="phi">
        <DataArray type="Float32" Name="phi" format="ascii">
          0 1 2 3 4 5 6 7 8 9 10 11 12 16 17 18 19 29 21 22 23 24 25 26 27
        </DataArray>
      </PointData>
      <CellData/>
    </Piece>
  </ImageData>
</VTKFile>